576
Lattice="17.721128524035894 0.0 0.0 0.0 16.310235143010342 0.0 0.0 0.0 15.338962815815137" Properties=species:S:1:pos:R:3:momenta:R:3:masses:R:1:forces:R:3:mace_forces:R:3 spacegroup="P 1" unit_cell=conventional occupancy="_JSON {\"0\": {\"C\": 1.0}, \"1\": {\"C\": 1.0}, \"2\": {\"H\": 1.0}, \"3\": {\"O\": 1.0}, \"4\": {\"H\": 1.0}, \"5\": {\"H\": 1.0}, \"6\": {\"H\": 1.0}, \"7\": {\"H\": 1.0}, \"8\": {\"H\": 1.0}}" temperature=0.0 pressure=0.000101325 time_fs=9.999999999999998 step=10 density=1.1043080999173904 model_path=/data/home/apw951/models/MACE-OFF23_medium.model arch=mace mace_energy=-270143.09496536007 mace_stress="-0.06925083200823445 -0.11799400604603148 -0.06706617402048057 -0.029458380016786155 -0.031392541531726124 -0.01384826420748799" energy=-270143.09496536007 free_energy=-270143.09496536007 stress="-0.06925083200823445 -0.01384826420748799 -0.031392541531726124 -0.01384826420748799 -0.11799400604603148 -0.029458380016786155 -0.031392541531726124 -0.029458380016786155 -0.06706617402048057" pbc="T T T"
C        1.32798964       2.30608850       1.98705342       0.15904291       0.15743808       0.01908268      12.01100000       1.06488099      -3.72749580      -2.34143629       1.06488099      -3.72749580      -2.34143629
C        2.62250489       2.15531950       1.19575575       0.21488861       0.15223938       0.30769554      12.01100000      -2.30407105      -2.04853130       1.47641449      -2.30407105      -2.04853130       1.47641449
H        1.44195010       3.01799744       2.65115955       0.22183639      -0.23346212      -0.12542692       1.00800000       0.39809216       3.71812428       2.96015146       0.39809216       3.71812428       2.96015146
O        1.06517166       1.17181394       2.81941881      -0.23991413       0.58280515      -0.29595146      15.99900000      -0.13814782       0.94226454       0.09642082      -0.13814782       0.94226454       0.09642082
H        3.34221162       1.94500853       1.91088382      -0.08875635       0.02576754       0.03066839       1.00800000       1.43505692      -0.31065274       1.10590709       1.43505692      -0.31065274       1.10590709
H        0.83914093       0.46662285       2.25441905      -0.30213734      -0.37265132      -0.27598539       1.00800000      -0.51586407      -1.11145006      -0.88619928      -0.51586407      -1.11145006      -0.88619928
H        0.54090026       2.47822841       1.30425641       0.08686221       0.07722080       0.09466039       1.00800000      -0.85075512       0.35389310      -0.52205015      -0.85075512       0.35389310      -0.52205015
H        2.53783581       1.33390233       0.52164442       0.01928567       0.03656606       0.04405710       1.00800000       0.12857844      -0.46226828      -0.38294255       0.12857844      -0.46226828      -0.38294255
H        2.82450736       3.00358659       0.67799287      -0.10902788      -0.26343002       0.25155876       1.00800000       0.77505401       2.62002761      -1.53320166       0.77505401       2.62002761      -1.53320166
C        1.33403902       2.30294711       5.81235070       0.18732044       0.03385795      -0.04467645      12.01100000       1.07998155      -3.98672779      -2.20250227       1.07998155      -3.98672779      -2.20250227
C        2.62840904       2.13741142       5.03728927       0.25793357      -0.02247327       0.31389212      12.01100000      -2.26641380      -2.16453823       1.38494625      -2.26641380      -2.16453823       1.38494625
H        1.43360063       3.02431396       6.46707190       0.23186897      -0.27367578      -0.06350072       1.00800000       0.33278871       3.71557282       3.00236756       0.33278871       3.71557282       3.00236756
O        1.07516673       1.16186671       6.64208560      -0.15487083       0.55726768      -0.37752011      15.99900000      -0.27195733       0.84901316      -0.02392106      -0.27195733       0.84901316      -0.02392106
H        3.35965834       1.90751696       5.73698667      -0.14398544       0.03555352       0.03623448       1.00800000       1.30085878      -0.28378607       1.09061308       1.30085878      -0.28378607       1.09061308
H        0.83149637       0.46572895       6.06568736      -0.31632665      -0.36008520      -0.30747289       1.00800000      -0.46821726      -0.87549132      -0.70641207      -0.46821726      -0.87549132      -0.70641207
H        0.55648288       2.45811048       5.11390776       0.09084370       0.06379019       0.06953618       1.00800000      -0.86168273       0.36469616      -0.51396605      -0.86168273       0.36469616      -0.51396605
H        2.51610451       1.31937111       4.35936146       0.03544363       0.08579596       0.04682581       1.00800000       0.20019654      -0.37184605      -0.36338347       0.20019654      -0.37184605      -0.36338347
H        2.82256860       2.98816483       4.52747079      -0.05019700      -0.28058725       0.20827660       1.00800000       0.91006735       2.74107131      -1.66631336       0.91006735       2.74107131      -1.66631336
C        1.32595163       2.30915492       9.65263482       0.24747670       0.02757719       0.04667271      12.01100000       1.21406459      -4.06578307      -2.20946607       1.21406459      -4.06578307      -2.20946607
C        2.61807282       2.14834170       8.85963317       0.06873086       0.17032834       0.20839029      12.01100000      -2.41650034      -1.96614304       1.40543424      -2.41650034      -1.96614304       1.40543424
H        1.44564599       3.01891422      10.31540984       0.20946403      -0.25482867      -0.08310867       1.00800000       0.39565448       3.75539492       3.05481554       0.39565448       3.75539492       3.05481554
O        1.06792793       1.16607537      10.48269176      -0.21515400       0.60772092      -0.31238606      15.99900000      -0.22669258       0.87588369      -0.02905813      -0.22669258       0.87588369      -0.02905813
H        3.36363792       1.94849225       9.54991580      -0.13955624       0.00828906       0.05129347       1.00800000       1.35529430      -0.30779995       1.13211661       1.35529430      -0.30779995       1.13211661
H        0.83478808       0.46435692       9.90950314      -0.30808803      -0.35339036      -0.31546216       1.00800000      -0.45937220      -0.89049231      -0.74504871      -0.45937220      -0.89049231      -0.74504871
H        0.54035603       2.47485471       8.96950121       0.07011772       0.09770003       0.05459321       1.00800000      -0.90803476       0.38971749      -0.56456879      -0.90803476       0.38971749      -0.56456879
H        2.50485041       1.32561325       8.19128841       0.04782024       0.04683496       0.03647322       1.00800000       0.21376887      -0.45752082      -0.38350628       0.21376887      -0.45752082      -0.38350628
H        2.78822126       2.99798446       8.33457349      -0.08234149      -0.29129126       0.19984878       1.00800000       0.80706804       2.63624688      -1.64438631       0.80706804       2.63624688      -1.64438631
C        1.32498142       2.29765545      13.49396158       0.10796930       0.02873726      -0.00627912      12.01100000       1.14151408      -3.84228050      -2.53775839       1.14151408      -3.84228050      -2.53775839
C        2.62189325       2.14797500      12.71059363       0.28960651       0.17350165       0.30237738      12.01100000      -2.20962185      -1.74700401       1.26718137      -2.20962185      -1.74700401       1.26718137
H        1.41697293       3.00693078      14.16081300       0.22045088      -0.22252552      -0.09332336       1.00800000       0.34805870       3.81382098       3.05765833       0.34805870       3.81382098       3.05765833
O        1.07402127       1.15684864      14.31149887      -0.16295432       0.39516299      -0.32293758      15.99900000      -0.25486009       0.63662584       0.16977100      -0.25486009       0.63662584       0.16977100
H        3.35372305       1.91115014      13.40614989      -0.13435179       0.01515227       0.06684300       1.00800000       1.32955524      -0.32806371       1.12045873       1.32955524      -0.32806371       1.12045873
H        0.83750197       0.45702528      13.73867236      -0.30817299      -0.36685653      -0.30921082       1.00800000      -0.47410069      -0.92749012      -0.76543564      -0.47410069      -0.92749012      -0.76543564
H        0.54108394       2.45254630      12.80023250       0.12224957       0.09018815       0.09058357       1.00800000      -0.77666652       0.38849159      -0.48894675      -0.77666652       0.38849159      -0.48894675
H        2.52006665       1.34721973      12.01622424      -0.00597191       0.02043495       0.02388222       1.00800000       0.13254602      -0.50315532      -0.41244587       0.13254602      -0.50315532      -0.41244587
H        2.83274679       3.00560839      12.20484936      -0.11472554      -0.27696830       0.27206493       1.00800000       0.78181046       2.50315364      -1.40984105       0.78181046       2.50315364      -1.40984105
C        1.32429233       6.38266128       1.98395896       0.08162244       0.07855870       0.00814316      12.01100000       1.13387180      -3.89933324      -2.34473439       1.13387180      -3.89933324      -2.34473439
C        2.62293356       6.24322675       1.20071141       0.19292848       0.29923826       0.31314555      12.01100000      -2.28290577      -1.91881234       1.44720011      -2.28290577      -1.91881234       1.44720011
H        1.41353116       7.09966360       2.64341889       0.24681657      -0.23155328      -0.08353777       1.00800000       0.33578579       3.81322031       3.00353017       0.33578579       3.81322031       3.00353017
O        1.07577385       5.24568652       2.81574645      -0.13443550       0.52968769      -0.33086467      15.99900000      -0.20802878       0.74297681       0.01124525      -0.20802878       0.74297681       0.01124525
H        3.35078652       6.04310952       1.91045727      -0.10964471       0.07383782       0.04398577       1.00800000       1.39895389      -0.24562268       1.11745202       1.39895389      -0.24562268       1.11745202
H        0.85849920       4.54932850       2.23197401      -0.28773984      -0.40408949      -0.26350181       1.00800000      -0.47632334      -1.04176240      -0.72541416      -0.47632334      -1.04176240      -0.72541416
H        0.53664168       6.52496524       1.29605002       0.09947617       0.07831681       0.04095028       1.00800000      -0.85121466       0.38826747      -0.57040673      -0.85121466       0.38826747      -0.57040673
H        2.54974278       5.42561392       0.52270729       0.00194935       0.01350256       0.02981327       1.00800000       0.11149149      -0.52073405      -0.40255001       0.11149149      -0.52073405      -0.40255001
H        2.79754933       7.09694719       0.68224952      -0.06669053      -0.25989426       0.26010089       1.00800000       0.79844242       2.63792334      -1.54536776       0.79844242       2.63792334      -1.54536776
C        1.33114786       6.38655706       5.80953001       0.24431158       0.02305152       0.09153662      12.01100000       1.20548100      -4.10168409      -2.13237687       1.20548100      -4.10168409      -2.13237687
C        2.62858567       6.23183249       5.02512048       0.22879578       0.18778822       0.22394488      12.01100000      -2.32801203      -1.92304461       1.39427662      -2.32801203      -1.92304461       1.39427662
H        1.43818306       7.09320831       6.47763235       0.20457088      -0.21334354      -0.14749946       1.00800000       0.35487436       3.76795215       3.05448640       0.35487436       3.76795215       3.05448640
O        1.07709462       5.23214973       6.64064856      -0.10513044       0.52108330      -0.51959958      15.99900000      -0.13923669       1.13796437      -0.19374469      -0.13923669       1.13796437      -0.19374469
H        3.35513753       6.02977881       5.73560140      -0.11235814       0.00974638       0.05206418       1.00800000       1.38886440      -0.30960550       1.12140637       1.38886440      -0.30960550       1.12140637
H        0.84454326       4.54775679       6.04891733      -0.30961910      -0.37891781      -0.29282293       1.00800000      -0.49946016      -1.01906521      -0.76719612      -0.49946016      -1.01906521      -0.76719612
H        0.54691361       6.54480602       5.12416035       0.07290483       0.10413684       0.05450735       1.00800000      -0.90894612       0.37878060      -0.56697894      -0.90894612       0.37878060      -0.56697894
H        2.53347200       5.40246573       4.36018860       0.04998007       0.06164791       0.04716194       1.00800000       0.18716361      -0.41084278      -0.36359721       0.18716361      -0.41084278      -0.36359721
H        2.82529253       7.07943057       4.50023398      -0.10986030      -0.29390278       0.21902297       1.00800000       0.75789386       2.50610003      -1.53678450       0.75789386       2.50610003      -1.53678450
C        1.31737640       6.37077675       9.66157308       0.23343813       0.08554491       0.00873831      12.01100000       1.40745793      -3.69184467      -2.44162494       1.40745793      -3.69184467      -2.44162494
C        2.61694336       6.22645542       8.87150217       0.16367564       0.04811904       0.32724636      12.01100000      -2.30999286      -2.13088624       1.51711570      -2.30999286      -2.13088624       1.51711570
H        1.42135318       7.09171858      10.31563237       0.18741787      -0.24840011      -0.09995334       1.00800000       0.32518897       3.79045231       2.99311712       0.32518897       3.79045231       2.99311712
O        1.07249895       5.23603763      10.48565487      -0.19744446       0.39791614      -0.26888221      15.99900000      -0.22220815       0.82067417       0.24894149      -0.22220815       0.82067417       0.24894149
H        3.34896165       6.01952648       9.57565611      -0.11937186       0.07510501       0.06459052       1.00800000       1.37713565      -0.23338245       1.13855912       1.37713565      -0.23338245       1.13855912
H        0.85132003       4.53951659       9.90880838      -0.29679442      -0.38937195      -0.27146687       1.00800000      -0.52807744      -1.16752339      -0.85754755      -0.52807744      -1.16752339      -0.85754755
H        0.53751920       6.51904340       8.97072951       0.04493216       0.09472849       0.04724121       1.00800000      -0.94986421       0.41145578      -0.61569322      -0.94986421       0.41145578      -0.61569322
H        2.53394669       5.39357956       8.21016357      -0.01013167       0.03921314       0.03557329       1.00800000       0.11295842      -0.44348975      -0.39942035       0.11295842      -0.44348975      -0.39942035
H        2.80845960       7.06661006       8.33961848      -0.09922095      -0.26216671       0.25306644       1.00800000       0.77758565       2.66075724      -1.60415124       0.77758565       2.66075724      -1.60415124
C        1.32501877       6.36542583      13.49376595       0.25204722      -0.03933761       0.00078642      12.01100000       1.35063016      -4.04623694      -2.37845311       1.35063016      -4.04623694      -2.37845311
C        2.62443031       6.22731591      12.70292401       0.14386624       0.02851329       0.25898473      12.01100000      -2.48380005      -2.23109756       1.37427808      -2.48380005      -2.23109756       1.37427808
H        1.42626003       7.08532434      14.14204744       0.19598209      -0.23176327      -0.00860798       1.00800000       0.31763437       3.96657014       3.22240565       0.31763437       3.96657014       3.22240565
O        1.07293278       5.22408690      14.32526348      -0.15865956       0.38480626      -0.30377962      15.99900000      -0.11783410       1.08455134       0.03405859      -0.11783410       1.08455134       0.03405859
H        3.35614430       5.97131707      13.38852161      -0.09454399       0.04047796       0.07275939       1.00800000       1.41044656      -0.30943730       1.17623271       1.41044656      -0.30943730       1.17623271
H        0.86821632       4.53535509      13.73286251      -0.27583271      -0.40962661      -0.26740123       1.00800000      -0.51057715      -1.20004547      -0.83916203      -0.51057715      -1.20004547      -0.83916203
H        0.54563830       6.50848959      12.80202806       0.04474991       0.07098256       0.05247104       1.00800000      -0.97716041       0.41057907      -0.62030988      -0.97716041       0.41057907      -0.62030988
H        2.51193789       5.43307500      12.00115236       0.01434824       0.06640708       0.01737926       1.00800000       0.17308875      -0.45474011      -0.41947906       0.17308875      -0.45474011      -0.41947906
H        2.82173902       7.08708462      12.20874627      -0.07414357      -0.24843785       0.26149984       1.00800000       0.85504012       2.79423432      -1.52519489       0.85504012       2.79423432      -1.52519489
C        1.31507045      10.45227251       1.97649694       0.13759988       0.04564969      -0.18781394      12.01100000       1.35127481      -3.81332916      -2.63926961       1.35127481      -3.81332916      -2.63926961
C        2.62065157      10.30486048       1.19440131       0.24862808       0.11493468       0.39527675      12.01100000      -2.29222189      -2.01140919       1.58609726      -2.29222189      -2.01140919       1.58609726
H        1.39704591      11.16017393       2.64619284       0.20789816      -0.21384942      -0.11876005       1.00800000       0.33021287       3.84057321       3.02611026       0.33021287       3.84057321       3.02611026
O        1.07687953       9.30944707       2.79403233      -0.16644620       0.37003875      -0.47913523      15.99900000      -0.28443536       0.71502104       0.20714714      -0.28443536       0.71502104       0.20714714
H        3.34032327      10.08020974       1.90825027      -0.13456083       0.02415897       0.02657189       1.00800000       1.32273991      -0.30963892       1.09660203       1.32273991      -0.30963892       1.09660203
H        0.85015009       8.61009476       2.21990071      -0.29255649      -0.37319239      -0.31564219       1.00800000      -0.49531152      -1.03178760      -0.83189650      -0.49531152      -1.03178760      -0.83189650
H        0.53915243      10.60128917       1.27407111       0.06820727       0.07187242       0.11123899       1.00800000      -0.85690839       0.35894758      -0.47912452      -0.85690839       0.35894758      -0.47912452
H        2.52969893       9.48118484       0.52079076       0.01835853       0.09199448       0.03175669       1.00800000       0.14446051      -0.35346289      -0.37437917       0.14446051      -0.35346289      -0.37437917
H        2.84282446      11.15526409       0.69032568      -0.12244075      -0.28377349       0.20495816       1.00800000       0.80348204       2.63254329      -1.57388305       0.80348204       2.63254329      -1.57388305
C        1.33101020      10.45621817       5.83127298       0.21729433       0.11537778      -0.02125577      12.01100000       1.14286580      -3.70181988      -2.61103013       1.14286580      -3.70181988      -2.61103013
C        2.62072602      10.29590894       5.03355487       0.17845090       0.05175136       0.28638261      12.01100000      -2.35179643      -2.10212036       1.51303318      -2.35179643      -2.10212036       1.51303318
H        1.43679432      11.17291250       6.49098654       0.22941862      -0.24578349      -0.09683366       1.00800000       0.39225866       3.72560457       2.96796115       0.39225866       3.72560457       2.96796115
O        1.07970545       9.31904171       6.64429393      -0.12314351       0.40210771      -0.27767494      15.99900000      -0.23266778       0.69957248       0.39659095      -0.23266778       0.69957248       0.39659095
H        3.35541084      10.07814277       5.73043631      -0.11168691       0.02207878       0.07244570       1.00800000       1.38757080      -0.30495938       1.14012544       1.38757080      -0.30495938       1.14012544
H        0.83425890       8.62764707       6.07072227      -0.31122787      -0.36867066      -0.28069431       1.00800000      -0.54235951      -1.11731995      -0.87831453      -0.54235951      -1.11731995      -0.87831453
H        0.54455795      10.61545948       5.14170290       0.11101520       0.10411543       0.09337110       1.00800000      -0.80962985       0.41491365      -0.48610311      -0.80962985       0.41491365      -0.48610311
H        2.51850687       9.47379737       4.36105889      -0.00529265       0.05466912       0.04726085       1.00800000       0.11722577      -0.42485992      -0.37044099       0.11722577      -0.42485992      -0.37044099
H        2.81422946      11.14068133       4.51525373      -0.08744522      -0.26057482       0.21482966       1.00800000       0.85386998       2.78651877      -1.69376091       0.85386998       2.78651877      -1.69376091
C        1.32861000      10.45506874       9.66295475       0.21268142       0.05256670       0.06960057      12.01100000       1.06765674      -3.77966340      -2.38679016       1.06765674      -3.77966340      -2.38679016
C        2.62321612      10.30572937       8.86907045       0.15774877       0.02044072       0.24193633      12.01100000      -2.37517261      -2.20015092       1.36327798      -2.37517261      -2.20015092       1.36327798
H        1.44294728      11.17111558      10.32254568       0.16874690      -0.24639859      -0.13762689       1.00800000       0.32261159       3.71285243       2.93991293       0.32261159       3.71285243       2.93991293
O        1.06884934       9.31957768      10.49421132      -0.17569713       0.49105172      -0.21686687      15.99900000      -0.09672809       0.85022509       0.09737936      -0.09672809       0.85022509       0.09737936
H        3.35971847      10.07696882       9.56199945      -0.11736572       0.06323110       0.05889085       1.00800000       1.34788099      -0.25356314       1.11429357       1.34788099      -0.25356314       1.11429357
H        0.82522912       8.62856418       9.91695561      -0.32461849      -0.37431019      -0.26463142       1.00800000      -0.52672997      -1.07604905      -0.80177998      -0.52672997      -1.07604905      -0.80177998
H        0.53787131      10.60062933       8.97319201       0.13116754       0.13060770       0.11897988       1.00800000      -0.73213055       0.44606516      -0.42990137      -0.73213055       0.44606516      -0.42990137
H        2.51664605       9.48544748       8.19198979       0.01258085       0.08872579       0.05929281       1.00800000       0.17101082      -0.37019208      -0.34357099       0.17101082      -0.37019208      -0.34357099
H        2.81307397      11.15459734       8.34803879      -0.07665411      -0.27108220       0.25867383       1.00800000       0.80320422       2.62359974      -1.52987352       0.80320422       2.62359974      -1.52987352
C        1.33156572      10.45369983      13.51130655       0.27494268       0.04252405       0.17723540      12.01100000       1.28570009      -3.83120675      -2.40677212       1.28570009      -3.83120675      -2.40677212
C        2.62754467      10.30852135      12.71241025       0.24737822       0.17861675       0.36736769      12.01100000      -2.27351201      -1.86042553       1.38261120      -2.27351201      -1.86042553       1.38261120
H        1.43822916      11.16074957      14.18088844       0.22614378      -0.25164264      -0.09947190       1.00800000       0.39253239       3.69945587       3.01496628       0.39253239       3.69945587       3.01496628
O        1.06861573       9.30628012      14.32350521      -0.21786664       0.37969282      -0.25974285      15.99900000      -0.20288212       0.82632278       0.05658566      -0.20288212       0.82632278       0.05658566
H        3.36769790      10.10042748      13.40849459      -0.12668793       0.03953289       0.05150174       1.00800000       1.34073321      -0.29009951       1.09835677       1.34073321      -0.29009951       1.09835677
H        0.86906678       8.61207344      13.73200163      -0.27698433      -0.38462030      -0.30583215       1.00800000      -0.46858988      -1.03000995      -0.80021526      -0.46858988      -1.03000995      -0.80021526
H        0.54924688      10.62217183      12.82601473       0.06190852       0.10051211       0.06623170       1.00800000      -0.93796390       0.41109437      -0.59100435      -0.93796390       0.41109437      -0.59100435
H        2.54031567       9.49345445      12.02724446       0.00486507       0.06948175       0.06971846       1.00800000       0.11480589      -0.39572013      -0.31657267       0.11480589      -0.39572013      -0.31657267
H        2.81433521      11.16681138      12.19777306      -0.10273189      -0.28892545       0.26331017       1.00800000       0.72345621       2.47409221      -1.44425354       0.72345621       2.47409221      -1.44425354
C        1.32584874      14.52878460       1.99080163       0.12671203       0.05897509       0.06446113      12.01100000       1.08054144      -3.71478338      -2.31378861       1.08054144      -3.71478338      -2.31378861
C        2.62183385      14.39186409       1.20856734       0.20643045       0.11768326       0.32464668      12.01100000      -2.28122338      -2.23317455       1.38435475      -2.28122338      -2.23317455       1.38435475
H        1.42769661      15.24067266       2.65761009       0.21081357      -0.26377046      -0.09276602       1.00800000       0.31448633       3.66405462       2.99473192       0.31448633       3.66405462       2.99473192
O        1.07038855      13.38097509       2.80397887      -0.18887389       0.36511199      -0.40832199      15.99900000      -0.24980304       0.67594532      -0.03575777      -0.24980304       0.67594532      -0.03575777
H        3.34885385      14.17290641       1.91287486      -0.09672770       0.07132666       0.07955360       1.00800000       1.41413847      -0.26123276       1.14726245       1.41413847      -0.26123276       1.14726245
H        0.84482605      12.68804073       2.21403560      -0.29624148      -0.38736927      -0.31170389       1.00800000      -0.42591040      -0.82879263      -0.65717112      -0.42591040      -0.82879263      -0.65717112
H        0.54327529      14.69309818       1.30054949       0.09060052       0.08228883       0.07691890       1.00800000      -0.85544345       0.38238942      -0.52425617      -0.85544345       0.38238942      -0.52425617
H        2.53987275      13.57275805       0.52895830      -0.00394371       0.07174309       0.03740686       1.00800000       0.12331147      -0.41396522      -0.39322421       0.12331147      -0.41396522      -0.39322421
H        2.80649338      15.24380539       0.69718101      -0.06970874      -0.24855144       0.24779232       1.00800000       0.84124600       2.77119341      -1.61809138       0.84124600       2.77119341      -1.61809138
C        1.32177198      14.54044078       5.81607670       0.07589768      -0.00959639       0.04225801      12.01100000       1.11811205      -4.06582091      -2.29579301       1.11811205      -4.06582091      -2.29579301
C        2.61924169      14.38447911       5.03037824       0.17571097       0.14817211       0.23659142      12.01100000      -2.38474553      -2.10326760       1.46252060      -2.38474553      -2.10326760       1.46252060
H        1.42734903      15.25467578       6.47666921       0.22067537      -0.22447887      -0.10994804       1.00800000       0.34893425       3.77948542       3.00451988       0.34893425       3.77948542       3.00451988
O        1.07695328      13.39644074       6.64953138      -0.09432307       0.54181035      -0.30863293      15.99900000      -0.15688618       0.90454326       0.02869258      -0.15688618       0.90454326       0.02869258
H        3.34179779      14.17716004       5.74295385      -0.09994237       0.01357751       0.06700109       1.00800000       1.41407260      -0.32299362       1.14622940       1.41407260      -0.32299362       1.14622940
H        0.84609048      12.70023146       6.07086848      -0.30082778      -0.37235732      -0.28875337       1.00800000      -0.48261287      -0.98953386      -0.75558215      -0.48261287      -0.98953386      -0.75558215
H        0.52345132      14.67807234       5.13949928       0.12679587       0.12750590       0.03004581       1.00800000      -0.79325763       0.43975956      -0.57264157      -0.79325763       0.43975956      -0.57264157
H        2.53208845      13.55963385       4.35865951       0.01708306       0.05698425       0.06249089       1.00800000       0.13825263      -0.42393267      -0.35331543       0.13825263      -0.42393267      -0.35331543
H        2.82599281      15.22831676       4.51489753      -0.10544774      -0.24762924       0.21611000       1.00800000       0.83205360       2.77170846      -1.66747154       0.83205360       2.77170846      -1.66747154
C        1.31343079      14.53068028       9.65285671       0.07284885      -0.01089404      -0.06446334      12.01100000       1.27277732      -4.05237379      -2.41063675       1.27277732      -4.05237379      -2.41063675
C        2.62153365      14.39377304       8.88077107       0.18525885       0.25314860       0.29899468      12.01100000      -2.36183872      -2.02467500       1.29562735      -2.36183872      -2.02467500       1.29562735
H        1.41025628      15.24721340      10.30860679       0.21203194      -0.22270212      -0.03781062       1.00800000       0.29966581       3.90982276       3.11422108       0.29966581       3.90982276       3.11422108